 LAMMPS data file from restart file
         400   atoms
         398   bonds
         396   angles
 
         200  atom types
 1 bond types
 1 angle types
 
  -50.000000000000000        50.000000000000000       xlo xhi
  -50.000000000000000        50.000000000000000       ylo yhi
  -50.000000000000000        50.000000000000000       zlo zhi
 
 Masses
 
           1           1
           2           1
           3           1
           4           1
           5           1
           6           1
           7           1
           8           1
           9           1
          10           1
          11           1
          12           1
          13           1
          14           1
          15           1
          16           1
          17           1
          18           1
          19           1
          20           1
          21           1
          22           1
          23           1
          24           1
          25           1
          26           1
          27           1
          28           1
          29           1
          30           1
          31           1
          32           1
          33           1
          34           1
          35           1
          36           1
          37           1
          38           1
          39           1
          40           1
          41           1
          42           1
          43           1
          44           1
          45           1
          46           1
          47           1
          48           1
          49           1
          50           1
          51           1
          52           1
          53           1
          54           1
          55           1
          56           1
          57           1
          58           1
          59           1
          60           1
          61           1
          62           1
          63           1
          64           1
          65           1
          66           1
          67           1
          68           1
          69           1
          70           1
          71           1
          72           1
          73           1
          74           1
          75           1
          76           1
          77           1
          78           1
          79           1
          80           1
          81           1
          82           1
          83           1
          84           1
          85           1
          86           1
          87           1
          88           1
          89           1
          90           1
          91           1
          92           1
          93           1
          94           1
          95           1
          96           1
          97           1
          98           1
          99           1
         100           1
         101           1
         102           1
         103           1
         104           1
         105           1
         106           1
         107           1
         108           1
         109           1
         110           1
         111           1
         112           1
         113           1
         114           1
         115           1
         116           1
         117           1
         118           1
         119           1
         120           1
         121           1
         122           1
         123           1
         124           1
         125           1
         126           1
         127           1
         128           1
         129           1
         130           1
         131           1
         132           1
         133           1
         134           1
         135           1
         136           1
         137           1
         138           1
         139           1
         140           1
         141           1
         142           1
         143           1
         144           1
         145           1
         146           1
         147           1
         148           1
         149           1
         150           1
         151           1
         152           1
         153           1
         154           1
         155           1
         156           1
         157           1
         158           1
         159           1
         160           1
         161           1
         162           1
         163           1
         164           1
         165           1
         166           1
         167           1
         168           1
         169           1
         170           1
         171           1
         172           1
         173           1
         174           1
         175           1
         176           1
         177           1
         178           1
         179           1
         180           1
         181           1
         182           1
         183           1
         184           1
         185           1
         186           1
         187           1
         188           1
         189           1
         190           1
         191           1
         192           1
         193           1
         194           1
         195           1
         196           1
         197           1
         198           1
         199           1
         200           1
 
 Atoms
 
           1           1           1   0.0000000000000000        0.0000000000000000        0.0000000000000000                0           0           0
           2           1           2 -0.22047837586091273       0.97539186267762867        0.0000000000000000                0           0           0
           3           1           3 -0.24157706239844437        1.9751692606149849        0.0000000000000000                0           0           0
           4           1           4  0.59087376128311864        2.5292681923518070        0.0000000000000000                0           0           0
           5           1           5 -0.18562486975366232        1.8991492543742177        0.0000000000000000                0           0           0
           6           1           6  0.63583618518250218        1.3288846357775843        0.0000000000000000                0           0           0
           7           1           7  0.96940686218523631        2.2716097300887190        0.0000000000000000                0           0           0
           8           1           8  -3.6244105552296624E-003   2.5022829670909097        0.0000000000000000                0           0           0
           9           1           9  0.92387102878924465        2.1284484983815615        0.0000000000000000                0           0           0
          10           1          10   1.6210652165436745        2.8453308210548443        0.0000000000000000                0           0           0
          11           1          11  0.75735978875154364        3.3493277793813920        0.0000000000000000                0           0           0
          12           1          12 -0.22025467938322008        3.1389235215975178        0.0000000000000000                0           0           0
          13           1          13  0.56038748373040836        3.7639017717544934        0.0000000000000000                0           0           0
          14           1          14 -0.24741305159467386        4.3533577032103663        0.0000000000000000                0           0           0
          15           1          15 -0.83331056771487078        3.5429725474947746        0.0000000000000000                0           0           0
          16           1          16  0.15225775386091212        3.7122506722076101        0.0000000000000000                0           0           0
          17           1          17   1.0375626521415544        4.1772616796905533        0.0000000000000000                0           0           0
          18           1          18   1.9450840495355588        4.5972675287831981        0.0000000000000000                0           0           0
          19           1          19   2.5427160057103073        3.7954969600051074        0.0000000000000000                0           0           0
          20           1          20   1.8925314844513474        3.0357206190235937        0.0000000000000000                0           0           0
          21           1          21  0.99615976831266106        2.5924173971690867        0.0000000000000000                0           0           0
          22           1          22   1.8135073455733419        2.0162725039815350        0.0000000000000000                0           0           0
          23           1          23   2.5746328017738760        1.3676678170392276        0.0000000000000000                0           0           0
          24           1          24   1.8801800088699241        2.0872060845607687        0.0000000000000000                0           0           0
          25           1          25   1.3050943784512283        2.9052993052183727        0.0000000000000000                0           0           0
          26           1          26   1.5665665127593877        3.8705103303213475        0.0000000000000000                0           0           0
          27           1          27  0.65942835000643185        3.4496774018601921        0.0000000000000000                0           0           0
          28           1          28  -3.5857872515099309E-004   4.2011301340229981        0.0000000000000000                0           0           0
          29           1          29 -0.78046798766548697        4.8267732512094330        0.0000000000000000                0           0           0
          30           1          30  -1.4497854751103687        5.5697497656434161        0.0000000000000000                0           0           0
          31           1          31  -2.3602779530124076        5.9832753968729753        0.0000000000000000                0           0           0
          32           1          32  -1.7927109172790705        6.8066025857528718        0.0000000000000000                0           0           0
          33           1          33  -2.4913643882336651        6.0911423649697056        0.0000000000000000                0           0           0
          34           1          34  -2.4947970548062086        5.0911482565869601        0.0000000000000000                0           0           0
          35           1          35  -3.0361361441921200        5.9319526275929819        0.0000000000000000                0           0           0
          36           1          36  -2.5522218490878834        5.0568372323485775        0.0000000000000000                0           0           0
          37           1          37  -2.6187830211993055        6.0546195785379426        0.0000000000000000                0           0           0
          38           1          38  -1.6414951941577844        5.8427033141398041        0.0000000000000000                0           0           0
          39           1          39  -1.6180065008070912        6.8424274167224501        0.0000000000000000                0           0           0
          40           1          40  -2.2276073217179668        6.0497188705689560        0.0000000000000000                0           0           0
          41           1          41  -1.3648162549417404        5.5441582163531224        0.0000000000000000                0           0           0
          42           1          42  -2.0514964654358856        6.2711178359440023        0.0000000000000000                0           0           0
          43           1          43  -2.6507987012579113        7.0716406839244463        0.0000000000000000                0           0           0
          44           1          44  -1.6776223002026063        6.8415804908682718        0.0000000000000000                0           0           0
          45           1          45  -2.5122827600135031        7.3923453379929427        0.0000000000000000                0           0           0
          46           1          46  -1.7854965722416893        8.0792091070651750        0.0000000000000000                0           0           0
          47           1          47  -2.2011896533107853        8.9887140616153314        0.0000000000000000                0           0           0
          48           1          48  -1.6227793328123465        8.1729680832980041        0.0000000000000000                0           0           0
          49           1          49 -0.64389187003699477        7.9685681439114315        0.0000000000000000                0           0           0
          50           1          50  -1.5517455773282824        7.5492810749986585        0.0000000000000000                0           0           0
          51           1          51  -1.4787152525133280        6.5519513543658974        0.0000000000000000                0           0           0
          52           1          52 -0.61945481878375608        7.0634897273418336        0.0000000000000000                0           0           0
          53           1          53  0.36027741880866049        6.8631781135443388        0.0000000000000000                0           0           0
          54           1          54  0.30057267297022006        7.8613941940220915        0.0000000000000000                0           0           0
          55           1          55   1.1616580042661768        7.3529337213922785        0.0000000000000000                0           0           0
          56           1          56  0.21383460271821064        7.0341378627647817        0.0000000000000000                0           0           0
          57           1          57  0.23959341020469280        6.0344696758963217        0.0000000000000000                0           0           0
          58           1          58 -0.75390055846979109        6.1483544167856250        0.0000000000000000                0           0           0
          59           1          59 -0.10131779786069117        6.9060718710888809        0.0000000000000000                0           0           0
          60           1          60  0.23482717242169571        5.9642616147453573        0.0000000000000000                0           0           0
          61           1          61 -0.70372792049762267        6.3093910651769445        0.0000000000000000                0           0           0
          62           1          62  -1.4983185001524690        5.7022454395451891        0.0000000000000000                0           0           0
          63           1          63  -2.3809159446286561        6.1723749440480482        0.0000000000000000                0           0           0
          64           1          64  -2.2404096595130292        7.1624547306526463        0.0000000000000000                0           0           0
          65           1          65  -2.6156174143559450        8.0893954734759070        0.0000000000000000                0           0           0
          66           1          66  -3.5313152604493832        7.6875280144053342        0.0000000000000000                0           0           0
          67           1          67  -4.5103328963946820        7.8913035490214369        0.0000000000000000                0           0           0
          68           1          68  -4.2617321020253147        6.9226975171184142        0.0000000000000000                0           0           0
          69           1          69  -5.0890919119773770        7.4843697924499342        0.0000000000000000                0           0           0
          70           1          70  -5.4824456414834302        6.5649825815949656        0.0000000000000000                0           0           0
          71           1          71  -4.4857335078628484        6.4839583710557198        0.0000000000000000                0           0           0
          72           1          72  -5.4738314654176401        6.6377843320507646        0.0000000000000000                0           0           0
          73           1          73  -5.2672871032158666        5.6593470952068969        0.0000000000000000                0           0           0
          74           1          74  -5.8780047415268299        6.4511955442524700        0.0000000000000000                0           0           0
          75           1          75  -6.8619000665122689        6.6299411441194263        0.0000000000000000                0           0           0
          76           1          76  -6.6458114955654022        5.6535673788501306        0.0000000000000000                0           0           0
          77           1          77  -5.7586530119883941        6.1150322475209142        0.0000000000000000                0           0           0
          78           1          78  -4.7597960181866066        6.0672336499132866        0.0000000000000000                0           0           0
          79           1          79  -5.5350134275746496        6.6989281711667878        0.0000000000000000                0           0           0
          80           1          80  -4.5706343939116501        6.4344039200456127        0.0000000000000000                0           0           0
          81           1          81  -4.8988679604608683        5.4898073258370692        0.0000000000000000                0           0           0
          82           1          82  -5.2907316724447986        6.4098306033850747        0.0000000000000000                0           0           0
          83           1          83  -5.5034084659785174        7.3869532064867611        0.0000000000000000                0           0           0
          84           1          84  -5.6176245235114770        8.3804091401856979        0.0000000000000000                0           0           0
          85           1          85  -5.4166812556461874        7.4008062598818380        0.0000000000000000                0           0           0
          86           1          86  -6.3219541301112692        6.9759756786406477        0.0000000000000000                0           0           0
          87           1          87  -5.8454667554473270        7.8551569920145523        0.0000000000000000                0           0           0
          88           1          88  -6.8074109712063064        7.5819110848762348        0.0000000000000000                0           0           0
          89           1          89  -7.5078459010908034        8.2956273513278980        0.0000000000000000                0           0           0
          90           1          90  -8.4292055850169056        8.6843384687860876        0.0000000000000000                0           0           0
          91           1          91  -7.7532064245654775        9.4212408606053604        0.0000000000000000                0           0           0
          92           1          92  -8.5703608667615505        9.9976596472520356        0.0000000000000000                0           0           0
          93           1          93  -8.1802611482128604        9.0768870316795294        0.0000000000000000                0           0           0
          94           1          94  -7.6119865596802807        8.2540480486286985        0.0000000000000000                0           0           0
          95           1          95  -7.5945461199782098        9.2538959525935951        0.0000000000000000                0           0           0
          96           1          96  -7.0124127168653274        8.4408026609103999        0.0000000000000000                0           0           0
          97           1          97  -6.3053051308853636        9.1479086373026153        0.0000000000000000                0           0           0
          98           1          98  -6.4693323519574601        8.1614528244314233        0.0000000000000000                0           0           0
          99           1          99  -7.3717143727643411        7.7305158353895331        0.0000000000000000                0           0           0
         100           1         100  -8.2581211652831765        7.2676087192458416        0.0000000000000000                0           0           0
         101           1         101  -9.1471208627728284        6.8097009361024385        0.0000000000000000                0           0           0
         102           1         102  -9.8373569674953476        7.5332851535488139        0.0000000000000000                0           0           0
         103           1         103  -9.4712173331621834        8.4638450754078942        0.0000000000000000                0           0           0
         104           1         104  -9.7374176662668290        9.4277628014898340        0.0000000000000000                0           0           0
         105           1         105  -8.8329086101209811        9.8542172156423273        0.0000000000000000                0           0           0
         106           1         106  -8.3284905366066102        10.717676772953526        0.0000000000000000                0           0           0
         107           1         107  -9.3032702142730290        10.940846170516350        0.0000000000000000                0           0           0
         108           1         108  -8.3157079694194724        11.098074706538931        0.0000000000000000                0           0           0
         109           1         109  -7.5099310748190344        11.690293919439082        0.0000000000000000                0           0           0
         110           1         110  -8.4884754420127724        11.896330133327334        0.0000000000000000                0           0           0
         111           1         111  -8.4812298058908375        10.896356383293270        0.0000000000000000                0           0           0
         112           1         112  -9.4560315265520369        10.673283289003606        0.0000000000000000                0           0           0
         113           1         113  -8.5269294127853605        10.303460003914234        0.0000000000000000                0           0           0
         114           1         114  -9.1220341456726075        9.4998118490011532        0.0000000000000000                0           0           0
         115           1         115  -9.6844825927350744        10.326644204679750        0.0000000000000000                0           0           0
         116           1         116  -10.571981043116285        9.8658335053997206        0.0000000000000000                0           0           0
         117           1         117  -9.6027159100800876        9.6198150063385288        0.0000000000000000                0           0           0
         118           1         118  -9.5960877451827891        8.6198369728647464        0.0000000000000000                0           0           0
         119           1         119  -10.527796588901010        8.9830430170562678        0.0000000000000000                0           0           0
         120           1         120  -11.364570666259475        8.4354947146564783        0.0000000000000000                0           0           0
         121           1         121  -12.215742230641107        7.9106071381335390        0.0000000000000000                0           0           0
         122           1         122  -12.875893653779947        7.1594745942188425        0.0000000000000000                0           0           0
         123           1         123  -12.550312259883793        6.2139605774276383        0.0000000000000000                0           0           0
         124           1         124  -11.975289875067890        7.0320982534703891        0.0000000000000000                0           0           0
         125           1         125  -12.093741959534841        8.0250580228897928        0.0000000000000000                0           0           0
         126           1         126  -12.308443488816804        7.0483783142217025        0.0000000000000000                0           0           0
         127           1         127  -12.844864915303109        7.8923285812436390        0.0000000000000000                0           0           0
         128           1         128  -12.570483585288340        6.9307076134297469        0.0000000000000000                0           0           0
         129           1         129  -12.057689588912419        7.7892193007589361        0.0000000000000000                0           0           0
         130           1         130  -11.660681160012592        6.8714043371728710        0.0000000000000000                0           0           0
         131           1         131  -12.658811665341538        6.8102856466454815        0.0000000000000000                0           0           0
         132           1         132  -13.638712062771292        7.0097730174663209        0.0000000000000000                0           0           0
         133           1         133  -14.026657545435761        7.9314553393539828        0.0000000000000000                0           0           0
         134           1         134  -14.460324836439762        8.8325284111485232        0.0000000000000000                0           0           0
         135           1         135  -13.639045798390653        8.2620016881450073        0.0000000000000000                0           0           0
         136           1         136  -14.562157186569154        8.6465343460755939        0.0000000000000000                0           0           0
         137           1         137  -14.452796912400117        9.6405365243597636        0.0000000000000000                0           0           0
         138           1         138  -13.873524233335822        8.8254026928390292        0.0000000000000000                0           0           0
         139           1         139  -13.924466077252671        7.8267010714633791        0.0000000000000000                0           0           0
         140           1         140  -13.188744687616278        8.5039853816548217        0.0000000000000000                0           0           0
         141           1         141  -12.240411269606682        8.1867099046852996        0.0000000000000000                0           0           0
         142           1         142  -11.330632649442441        7.7716161052952710        0.0000000000000000                0           0           0
         143           1         143  -10.974643476518093        8.7061061848363224        0.0000000000000000                0           0           0
         144           1         144  -9.9842593610430654        8.8444510575810238        0.0000000000000000                0           0           0
         145           1         145  -9.3637534416801280        8.0602492952547991        0.0000000000000000                0           0           0
         146           1         146  -9.1223941428010757        7.0898134710785623        0.0000000000000000                0           0           0
         147           1         147  -9.8051177191206254        7.8204902247374184        0.0000000000000000                0           0           0
         148           1         148  -9.1528328260988356        7.0625163344644406        0.0000000000000000                0           0           0
         149           1         149  -8.2044824847426590        7.3797412232257473        0.0000000000000000                0           0           0
         150           1         150  -9.0716630080478229        7.8777351388514116        0.0000000000000000                0           0           0
         151           1         151  -9.4094808268903396        6.9365236210338255        0.0000000000000000                0           0           0
         152           1         152  -10.193525113016847        6.3158187335128906        0.0000000000000000                0           0           0
         153           1         153  -10.976826037158164        6.9374614462019064        0.0000000000000000                0           0           0
         154           1         154  -10.019091453880062        7.2251148278839583        0.0000000000000000                0           0           0
         155           1         155  -9.4340118916141957        8.0360907250712810        0.0000000000000000                0           0           0
         156           1         156  -8.4370836860750931        8.1144115588295076        0.0000000000000000                0           0           0
         157           1         157  -9.4286160681216522        8.2442712344531444        0.0000000000000000                0           0           0
         158           1         158  -8.4431053987252298        8.0746577900985894        0.0000000000000000                0           0           0
         159           1         159  -9.3015502696210959        8.5875636329514276        0.0000000000000000                0           0           0
         160           1         160  -10.047434703886372        9.2536390121096481        0.0000000000000000                0           0           0
         161           1         161  -11.009827437000496        9.5253009845112473        0.0000000000000000                0           0           0
         162           1         162  -10.578308286850147        8.6231972083005939        0.0000000000000000                0           0           0
         163           1         163  -9.7219472334890433        8.1068196852747931        0.0000000000000000                0           0           0